/*--------------------------------*- C++ -*----------------------------------*\
  =========                 |
  \\      /  F ield         | OpenFOAM: The Open Source CFD Toolbox
   \\    /   O peration     | Website:  https://openfoam.org
    \\  /    A nd           | Version:  6
     \\/     M anipulation  |
\*---------------------------------------------------------------------------*/
FoamFile
{
    version     2.0;
    format      binary;
    class       volScalarField;
    location    "18000";
    object      p_rgh;
}
// * * * * * * * * * * * * * * * * * * * * * * * * * * * * * * * * * * * * * //

dimensions      [0 2 -2 0 0 0 0];

internalField   uniform 0;

boundaryField
{
    lower.1
    {
        type            fixedFluxPressure;
        gradient        uniform 0;
        value           uniform 0;
    }
    upper.1
    {
        type            fixedFluxPressure;
        gradient        uniform 0;
        value           uniform 0;
    }
    north.1
    {
        type            cyclic;
    }
    south.1
    {
        type            cyclic;
    }
    upper.2
    {
        type            fixedFluxPressure;
        gradient        uniform 0;
        value           uniform 0;
    }
    east.2
    {
        type            fixedFluxPressure;
        gradient        uniform 0;
        value           uniform 0;
    }
    north.2
    {
        type            cyclic;
    }
    south.2
    {
        type            cyclic;
    }
    west.2
    {
        type            fixedFluxPressure;
        gradient        uniform 0;
        value           uniform 0;
    }
    west.1
    {
        type            cyclicAMI;
        value           uniform 0;
    }
    east.1
    {
        type            cyclicAMI;
        value           uniform 0;
    }
    lower.2.1
    {
        type            fixedFluxPressure;
        gradient        uniform 0;
        value           uniform 0;
    }
    lower.2.2
    {
        type            fixedFluxPressure;
        gradient        uniform 0;
        value           uniform 0;
    }
}


// ************************************************************************* //
