/*--------------------------------*- C++ -*----------------------------------*\
  =========                 |
  \\      /  F ield         | OpenFOAM: The Open Source CFD Toolbox
   \\    /   O peration     | Website:  https://openfoam.org
    \\  /    A nd           | Version:  6
     \\/     M anipulation  |
\*---------------------------------------------------------------------------*/
FoamFile
{
    version     2.0;
    format      binary;
    class       volVectorField;
    location    "18000";
    object      qwall;
}
// * * * * * * * * * * * * * * * * * * * * * * * * * * * * * * * * * * * * * //

#include        "../setUp"

dimensions      [0 1 -1 1 0 0 0];

internalField   uniform (0 0 0);

boundaryField
{
    lower.1
    {
        type            specifiedSurfaceTemperature;
        TSurface        uniform $T_onshore;
        kappa           $kappa;
        z0              uniform $z0_onshore;
        betaM           $betaM;
        gammaM          $gammaM;
        betaH           $betaH;
        gammaH          $gammaH;
        alphaH          $alphaH;
        averageType     "local";
        value           uniform (0.0 0.0 0.0);
    }
    upper.1
    {
        type            fixedValue;
        value           uniform (0 0 0);
    }
    north.1
    {
        type            cyclic;
    }
    south.1
    {
        type            cyclic;
    }
    upper.2
    {
        type            fixedValue;
        value           uniform (0 0 0);
    }
    east.2
    {
        type            fixedValue;
        value           uniform (0 0 0);
    }
    north.2
    {
        type            cyclic;
    }
    south.2
    {
        type            cyclic;
    }
    west.2
    {
        type            fixedValue;
        value           uniform (0 0 0);
    }
    west.1
    {
        type            cyclicAMI;
        value           uniform (0 0 0);
    }
    east.1
    {
        type            cyclicAMI;
        value           uniform (0 0 0);
    }
    lower.2.1
    {
        type            specifiedSurfaceTemperature;
        TSurface        uniform $T_onshore;
        kappa           $kappa;
        z0              uniform $z0_onshore;
        betaM           $betaM;
        gammaM          $gammaM;
        betaH           $betaH;
        gammaH          $gammaH;
        alphaH          $alphaH;
        averageType     "local";
        value           uniform (0.0 0.0 0.0);
    }
    lower.2.2
    {
        type            specifiedSurfaceTemperature;
        TSurface        uniform $T_offshore;
        kappa           $kappa;
        z0              uniform $z0_offshore;
        betaM           $betaM;
        gammaM          $gammaM;
        betaH           $betaH;
        gammaH          $gammaH;
        alphaH          $alphaH;
        averageType     "local";
        value           uniform (0.0 0.0 0.0);
    }
}


// ************************************************************************* //
