/*--------------------------------*- C++ -*----------------------------------*\
  =========                 |
  \\      /  F ield         | OpenFOAM: The Open Source CFD Toolbox
   \\    /   O peration     | Website:  https://openfoam.org
    \\  /    A nd           | Version:  6
     \\/     M anipulation  |
\*---------------------------------------------------------------------------*/
FoamFile
{
    version     2.0;
    format      binary;
    class       volVectorField;
    location    "18000";
    object      U;
}
// * * * * * * * * * * * * * * * * * * * * * * * * * * * * * * * * * * * * * //

#include        "../setUp"

dimensions      [0 1 -1 0 0 0 0];

internalField  uniform (8 0 0);  

boundaryField
{
    lower.1
    {
        type            velocityABLWallFunction;
        print           1;
        value           uniform (0 0 0);
    }
    upper.1
    {
        type            slip;
    }
    north.1
    {
        type            cyclic;
    }
    south.1
    {
        type            cyclic;
    }
    upper.2
    {
        type            slip;
    }
    east.2
    {
        type            inletOutlet;
        inletValue      uniform (0 0 0);
        value           uniform (8 0 0);
    }
    north.2
    {
        type            cyclic;
    }
    south.2
    {
        type            cyclic;
    }
    west.2
    {
        type            mappedVelocityFlux;
        value           uniform (8 0 0);
    }
    west.1
    {
        type            cyclicAMI;
        value           uniform (8 0 0);
    }
    east.1
    {
        type            cyclicAMI;
        value           uniform (8 0 0);
    }
    lower.2.1
    {
        type            velocityABLWallFunction;
        print           1;
        value           uniform (0 0 0);
    }
    lower.2.2
    {
        type            velocityABLWallFunction;
        print           1;
        value           uniform (0 0 0);
    }
}


// ************************************************************************* //
